LAMMPS data file - Augmented for curved bonds (N=10)

46 atoms
49 bonds

2 atom types
1 bond types

-7.0000 7.0000 xlo xhi
-3.50 3.50 ylo yhi
-2.00 2.00 zlo zhi

Masses

1 12.011
2 0.001

Atoms # atomic

1 1 -4.000000 1.000000 0.000000
2 1 -4.000000 -1.000000 0.000000
3 1 0.000000 1.500000 0.000000
4 1 0.000000 -1.500000 0.000000
5 1 4.000000 1.000000 0.000000
6 1 4.000000 -1.000000 0.000000
7 2 -3.577401 0.818182 0.000000
8 2 -3.189039 0.636364 0.000000
9 2 -2.866376 0.454545 0.000000
10 2 -2.635552 0.272727 0.000000
11 2 -2.515268 0.090909 0.000000
12 2 -2.515268 -0.090909 0.000000
13 2 -2.635552 -0.272727 0.000000
14 2 -2.866376 -0.454545 0.000000
15 2 -3.189039 -0.636364 0.000000
16 2 -3.577401 -0.818182 0.000000
17 2 -4.422599 0.818182 0.000000
18 2 -4.810961 0.636364 0.000000
19 2 -5.133624 0.454545 0.000000
20 2 -5.364448 0.272727 0.000000
21 2 -5.484732 0.090909 0.000000
22 2 -5.484732 -0.090909 0.000000
23 2 -5.364448 -0.272727 0.000000
24 2 -5.133624 -0.454545 0.000000
25 2 -4.810961 -0.636364 0.000000
26 2 -4.422599 -0.818182 0.000000
27 2 4.422599 0.818182 0.000000
28 2 4.810961 0.636364 0.000000
29 2 5.133624 0.454545 0.000000
30 2 5.364448 0.272727 0.000000
31 2 5.484732 0.090909 0.000000
32 2 5.484732 -0.090909 0.000000
33 2 5.364448 -0.272727 0.000000
34 2 5.133624 -0.454545 0.000000
35 2 4.810961 -0.636364 0.000000
36 2 4.422599 -0.818182 0.000000
37 2 3.577401 0.818182 0.000000
38 2 3.189039 0.636364 0.000000
39 2 2.866376 0.454545 0.000000
40 2 2.635552 0.272727 0.000000
41 2 2.515268 0.090909 0.000000
42 2 2.515268 -0.090909 0.000000
43 2 2.635552 -0.272727 0.000000
44 2 2.866376 -0.454545 0.000000
45 2 3.189039 -0.636364 0.000000
46 2 3.577401 -0.818182 0.000000

Bonds # bond

1 1 1 7
2 1 7 8
3 1 8 9
4 1 9 10
5 1 10 11
6 1 11 12
7 1 12 13
8 1 13 14
9 1 14 15
10 1 15 16
11 1 16 2
12 1 1 17
13 1 17 18
14 1 18 19
15 1 19 20
16 1 20 21
17 1 21 22
18 1 22 23
19 1 23 24
20 1 24 25
21 1 25 26
22 1 26 2
23 1 3 4
24 1 5 27
25 1 27 28
26 1 28 29
27 1 29 30
28 1 30 31
29 1 31 32
30 1 32 33
31 1 33 34
32 1 34 35
33 1 35 36
34 1 36 6
35 1 5 37
36 1 37 38
37 1 38 39
38 1 39 40
39 1 40 41
40 1 41 42
41 1 42 43
42 1 43 44
43 1 44 45
44 1 45 46
45 1 46 6
46 1 1 3
47 1 3 5
48 1 2 4
49 1 4 6
