LAMMPS data file - Spectacle (N=10)

96 atoms
99 bonds
0 angles

2 atom types
1 bond types

-7.1540 7.1540 xlo xhi
-4.7575 4.7575 ylo yhi
-2.0000 2.0000 zlo zhi

Masses

1 12.011
2 0.001

Atoms # atomic

1 1 1 -4.000000 1.000000 0.000000
2 1 1 -4.000000 -1.000000 0.000000
3 1 1 0.000000 1.500000 0.000000
4 1 1 0.000000 -1.500000 0.000000
5 1 1 4.000000 1.000000 0.000000
6 1 1 4.000000 -1.000000 0.000000
7 1 2 -3.786780 0.818182 0.000000
8 1 2 -3.546599 0.636364 0.000000
9 1 2 -3.304367 0.454545 0.000000
10 1 2 -3.088301 0.272727 0.000000
11 1 2 -2.926944 0.090909 0.000000
12 1 2 -2.845958 -0.090909 0.000000
13 1 2 -2.865027 -0.272727 0.000000
14 1 2 -2.995197 -0.454545 0.000000
15 1 2 -3.236959 -0.636364 0.000000
16 1 2 -3.579322 -0.818182 0.000000
17 1 2 -4.213220 0.818182 0.000000
18 1 2 -4.453401 0.636364 0.000000
19 1 2 -4.695633 0.454545 0.000000
20 1 2 -4.911699 0.272727 0.000000
21 1 2 -5.073056 0.090909 0.000000
22 1 2 -5.154042 -0.090909 0.000000
23 1 2 -5.134973 -0.272727 0.000000
24 1 2 -5.004803 -0.454545 0.000000
25 1 2 -4.763041 -0.636364 0.000000
26 1 2 -4.420678 -0.818182 0.000000
27 1 2 0.000000 1.227273 0.000000
28 1 2 0.000000 0.954545 0.000000
29 1 2 0.000000 0.681818 0.000000
30 1 2 0.000000 0.409091 0.000000
31 1 2 0.000000 0.136364 0.000000
32 1 2 0.000000 -0.136364 0.000000
33 1 2 0.000000 -0.409091 0.000000
34 1 2 0.000000 -0.681818 0.000000
35 1 2 0.000000 -0.954545 0.000000
36 1 2 0.000000 -1.227273 0.000000
37 1 2 4.420678 0.818182 0.000000
38 1 2 4.763041 0.636364 0.000000
39 1 2 5.004803 0.454545 0.000000
40 1 2 5.134973 0.272727 0.000000
41 1 2 5.154042 0.090909 0.000000
42 1 2 5.073056 -0.090909 0.000000
43 1 2 4.911699 -0.272727 0.000000
44 1 2 4.695633 -0.454545 0.000000
45 1 2 4.453401 -0.636364 0.000000
46 1 2 4.213220 -0.818182 0.000000
47 1 2 3.579322 0.818182 0.000000
48 1 2 3.236959 0.636364 0.000000
49 1 2 2.995197 0.454545 0.000000
50 1 2 2.865027 0.272727 0.000000
51 1 2 2.845958 0.090909 0.000000
52 1 2 2.926944 -0.090909 0.000000
53 1 2 3.088301 -0.272727 0.000000
54 1 2 3.304367 -0.454545 0.000000
55 1 2 3.546599 -0.636364 0.000000
56 1 2 3.786780 -0.818182 0.000000
57 1 2 -3.636364 1.468053 0.000000
58 1 2 -3.272727 1.901870 0.000000
59 1 2 -2.909091 2.269988 0.000000
60 1 2 -2.545455 2.546266 0.000000
61 1 2 -2.181818 2.712005 0.000000
62 1 2 -1.818182 2.757459 0.000000
63 1 2 -1.454545 2.682630 0.000000
64 1 2 -1.090909 2.497261 0.000000
65 1 2 -0.727273 2.220052 0.000000
66 1 2 -0.363636 1.877144 0.000000
67 1 2 0.363636 1.877144 0.000000
68 1 2 0.727273 2.220052 0.000000
69 1 2 1.090909 2.497261 0.000000
70 1 2 1.454545 2.682630 0.000000
71 1 2 1.818182 2.757459 0.000000
72 1 2 2.181818 2.712005 0.000000
73 1 2 2.545455 2.546266 0.000000
74 1 2 2.909091 2.269988 0.000000
75 1 2 3.272727 1.901870 0.000000
76 1 2 3.636364 1.468053 0.000000
77 1 2 -3.636364 -1.468053 0.000000
78 1 2 -3.272727 -1.901870 0.000000
79 1 2 -2.909091 -2.269988 0.000000
80 1 2 -2.545455 -2.546266 0.000000
81 1 2 -2.181818 -2.712005 0.000000
82 1 2 -1.818182 -2.757459 0.000000
83 1 2 -1.454545 -2.682630 0.000000
84 1 2 -1.090909 -2.497261 0.000000
85 1 2 -0.727273 -2.220052 0.000000
86 1 2 -0.363636 -1.877144 0.000000
87 1 2 0.363636 -1.877144 0.000000
88 1 2 0.727273 -2.220052 0.000000
89 1 2 1.090909 -2.497261 0.000000
90 1 2 1.454545 -2.682630 0.000000
91 1 2 1.818182 -2.757459 0.000000
92 1 2 2.181818 -2.712005 0.000000
93 1 2 2.545455 -2.546266 0.000000
94 1 2 2.909091 -2.269988 0.000000
95 1 2 3.272727 -1.901870 0.000000
96 1 2 3.636364 -1.468053 0.000000

Bonds # bond

10 1 1 7
11 1 7 8
12 1 8 9
13 1 9 10
14 1 10 11
15 1 11 12
16 1 12 13
17 1 13 14
18 1 14 15
19 1 15 16
20 1 16 2
21 1 1 17
22 1 17 18
23 1 18 19
24 1 19 20
25 1 20 21
26 1 21 22
27 1 22 23
28 1 23 24
29 1 24 25
30 1 25 26
31 1 26 2
32 1 3 27
33 1 27 28
34 1 28 29
35 1 29 30
36 1 30 31
37 1 31 32
38 1 32 33
39 1 33 34
40 1 34 35
41 1 35 36
42 1 36 4
43 1 5 37
44 1 37 38
45 1 38 39
46 1 39 40
47 1 40 41
48 1 41 42
49 1 42 43
50 1 43 44
51 1 44 45
52 1 45 46
53 1 46 6
54 1 5 47
55 1 47 48
56 1 48 49
57 1 49 50
58 1 50 51
59 1 51 52
60 1 52 53
61 1 53 54
62 1 54 55
63 1 55 56
64 1 56 6
65 1 1 57
66 1 57 58
67 1 58 59
68 1 59 60
69 1 60 61
70 1 61 62
71 1 62 63
72 1 63 64
73 1 64 65
74 1 65 66
75 1 66 3
76 1 3 67
77 1 67 68
78 1 68 69
79 1 69 70
80 1 70 71
81 1 71 72
82 1 72 73
83 1 73 74
84 1 74 75
85 1 75 76
86 1 76 5
87 1 2 77
88 1 77 78
89 1 78 79
90 1 79 80
91 1 80 81
92 1 81 82
93 1 82 83
94 1 83 84
95 1 84 85
96 1 85 86
97 1 86 4
98 1 4 87
99 1 87 88
100 1 88 89
101 1 89 90
102 1 90 91
103 1 91 92
104 1 92 93
105 1 93 94
106 1 94 95
107 1 95 96
108 1 96 6
