LAMMPS data file - Fixed 3-4 bond alignment (Theta structure)

6 atoms
9 bonds
6 angles

1 atom types
1 bond types
1 angle types

-6.00 6.00 xlo xhi
-3.50 3.50 ylo yhi
-2.00 2.00 zlo zhi

Masses

1 12.011

Atoms # atomic

1 1 1 -4.000 1.000 0.000
2 1 1 -4.000 -1.000 0.000
3 1 1 0.000 1.500 0.000
4 1 1 0.000 -1.500 0.000
5 1 1 4.000 1.000 0.000
6 1 1 4.000 -1.000 0.000

Bonds # bond

1 1 1 2
2 1 1 2
3 1 3 4
4 1 5 6
5 1 5 6
6 1 1 3
7 1 3 5
8 1 2 4
9 1 4 6

Angles

1 1 1 3 5
2 1 1 3 4
3 1 5 3 4
4 1 2 4 6
5 1 2 4 3
6 1 6 4 3