LAMMPS data file - Tree polymer (mass=1, equalized)

97 atoms
96 bonds
0 angles

2 atom types
1 bond types

-17.625 19.778 xlo xhi
-21.285 21.285 ylo yhi
-2.000 2.000 zlo zhi

Masses

1 1.000
2 1.000

Atoms # atomic

1 1 1 0.000000 0.000000 0.000000
2 1 2 1.000000 0.000000 0.000000
3 1 2 2.000000 0.000000 0.000000
4 1 2 3.000000 0.000000 0.000000
5 1 2 4.000000 0.000000 0.000000
6 1 2 5.000000 0.000000 0.000000
7 1 2 6.000000 0.000000 0.000000
8 1 2 7.000000 0.000000 0.000000
9 1 2 8.000000 0.000000 0.000000
10 1 2 9.000000 0.000000 0.000000
11 1 2 10.000000 0.000000 0.000000
12 1 2 10.707107 0.707107 0.000000
13 1 2 11.414214 1.414214 0.000000
14 1 2 12.121320 2.121320 0.000000
15 1 2 12.828427 2.828427 0.000000
16 1 2 13.535534 3.535534 0.000000
17 1 2 14.242641 4.242641 0.000000
18 1 2 14.949747 4.949747 0.000000
19 1 2 15.656854 5.656854 0.000000
20 1 2 16.363961 6.363961 0.000000
21 1 2 17.071068 7.071068 0.000000
22 1 2 17.778175 7.778175 0.000000
23 1 2 10.707107 -0.707107 0.000000
24 1 2 11.414214 -1.414214 0.000000
25 1 2 12.121320 -2.121320 0.000000
26 1 2 12.828427 -2.828427 0.000000
27 1 2 13.535534 -3.535534 0.000000
28 1 2 14.242641 -4.242641 0.000000
29 1 2 14.949747 -4.949747 0.000000
30 1 2 15.656854 -5.656854 0.000000
31 1 2 16.363961 -6.363961 0.000000
32 1 2 17.071068 -7.071068 0.000000
33 1 2 17.778175 -7.778175 0.000000
34 1 2 -0.500000 0.866025 0.000000
35 1 2 -1.000000 1.732051 0.000000
36 1 2 -1.500000 2.598076 0.000000
37 1 2 -2.000000 3.464102 0.000000
38 1 2 -2.500000 4.330127 0.000000
39 1 2 -3.000000 5.196152 0.000000
40 1 2 -3.500000 6.062178 0.000000
41 1 2 -4.000000 6.928203 0.000000
42 1 2 -4.500000 7.794229 0.000000
43 1 2 -5.000000 8.660254 0.000000
44 1 2 -5.965926 8.919073 0.000000
45 1 2 -6.931852 9.177892 0.000000
46 1 2 -7.897777 9.436711 0.000000
47 1 2 -8.863703 9.695530 0.000000
48 1 2 -9.829629 9.954349 0.000000
49 1 2 -10.795555 10.213168 0.000000
50 1 2 -11.761481 10.471987 0.000000
51 1 2 -12.727407 10.730806 0.000000
52 1 2 -13.693332 10.989625 0.000000
53 1 2 -14.659258 11.248444 0.000000
54 1 2 -15.625184 11.507264 0.000000
55 1 2 -4.741181 9.626180 0.000000
56 1 2 -4.482362 10.592106 0.000000
57 1 2 -4.223543 11.558032 0.000000
58 1 2 -3.964724 12.523957 0.000000
59 1 2 -3.705905 13.489883 0.000000
60 1 2 -3.447086 14.455809 0.000000
61 1 2 -3.188267 15.421735 0.000000
62 1 2 -2.929448 16.387661 0.000000
63 1 2 -2.670629 17.353586 0.000000
64 1 2 -2.411810 18.319512 0.000000
65 1 2 -2.152991 19.285438 0.000000
66 1 2 -0.500000 -0.866025 0.000000
67 1 2 -1.000000 -1.732051 0.000000
68 1 2 -1.500000 -2.598076 0.000000
69 1 2 -2.000000 -3.464102 0.000000
70 1 2 -2.500000 -4.330127 0.000000
71 1 2 -3.000000 -5.196152 0.000000
72 1 2 -3.500000 -6.062178 0.000000
73 1 2 -4.000000 -6.928203 0.000000
74 1 2 -4.500000 -7.794229 0.000000
75 1 2 -5.000000 -8.660254 0.000000
76 1 2 -4.741181 -9.626180 0.000000
77 1 2 -4.482362 -10.592106 0.000000
78 1 2 -4.223543 -11.558032 0.000000
79 1 2 -3.964724 -12.523957 0.000000
80 1 2 -3.705905 -13.489883 0.000000
81 1 2 -3.447086 -14.455809 0.000000
82 1 2 -3.188267 -15.421735 0.000000
83 1 2 -2.929448 -16.387661 0.000000
84 1 2 -2.670629 -17.353586 0.000000
85 1 2 -2.411810 -18.319512 0.000000
86 1 2 -2.152991 -19.285438 0.000000
87 1 2 -5.965926 -8.919073 0.000000
88 1 2 -6.931852 -9.177892 0.000000
89 1 2 -7.897777 -9.436711 0.000000
90 1 2 -8.863703 -9.695530 0.000000
91 1 2 -9.829629 -9.954349 0.000000
92 1 2 -10.795555 -10.213168 0.000000
93 1 2 -11.761481 -10.471987 0.000000
94 1 2 -12.727407 -10.730806 0.000000
95 1 2 -13.693332 -10.989625 0.000000
96 1 2 -14.659258 -11.248444 0.000000
97 1 2 -15.625184 -11.507264 0.000000

Bonds # bond

1 1 1 2
2 1 2 3
3 1 3 4
4 1 4 5
5 1 5 6
6 1 6 7
7 1 7 8
8 1 8 9
9 1 9 10
10 1 10 11
11 1 11 12
12 1 12 13
13 1 13 14
14 1 14 15
15 1 15 16
16 1 16 17
17 1 17 18
18 1 18 19
19 1 19 20
20 1 20 21
21 1 21 22
22 1 11 23
23 1 23 24
24 1 24 25
25 1 25 26
26 1 26 27
27 1 27 28
28 1 28 29
29 1 29 30
30 1 30 31
31 1 31 32
32 1 32 33
33 1 1 34
34 1 34 35
35 1 35 36
36 1 36 37
37 1 37 38
38 1 38 39
39 1 39 40
40 1 40 41
41 1 41 42
42 1 42 43
43 1 43 44
44 1 44 45
45 1 45 46
46 1 46 47
47 1 47 48
48 1 48 49
49 1 49 50
50 1 50 51
51 1 51 52
52 1 52 53
53 1 53 54
54 1 43 55
55 1 55 56
56 1 56 57
57 1 57 58
58 1 58 59
59 1 59 60
60 1 60 61
61 1 61 62
62 1 62 63
63 1 63 64
64 1 64 65
65 1 1 66
66 1 66 67
67 1 67 68
68 1 68 69
69 1 69 70
70 1 70 71
71 1 71 72
72 1 72 73
73 1 73 74
74 1 74 75
75 1 75 76
76 1 76 77
77 1 77 78
78 1 78 79
79 1 79 80
80 1 80 81
81 1 81 82
82 1 82 83
83 1 83 84
84 1 84 85
85 1 85 86
86 1 75 87
87 1 87 88
88 1 88 89
89 1 89 90
90 1 90 91
91 1 91 92
92 1 92 93
93 1 93 94
94 1 94 95
95 1 95 96
96 1 96 97
