LAMMPS data file for tetracyclic polymer (double figure-eight topology)

42 atoms
42 bonds
1 atom types
1 bond types

0.0 40.0 xlo xhi
0.0 40.0 ylo yhi
0.0 40.0 zlo zhi

Masses

1 1.0

Atoms  # atom-ID mol-ID type x y z

# Ring A (20 beads)
1  1  1  10.0  10.0  10.0
2  1  1  11.5  10.0  10.0
3  1  1  13.0  10.0  10.0
4  1  1  14.5  10.5  10.0
5  1  1  15.5  11.5  10.0
6  1  1  16.0  13.0  10.0
7  1  1  15.5  14.5  10.0
8  1  1  14.5  15.5  10.0
9  1  1  13.0  16.0  10.0
10 1  1  11.5  15.5  10.0
11 1  1  10.5  14.5  10.0
12 1  1  10.0  13.0  10.0
13 1  1  10.5  11.5  10.0
14 1  1  11.0  10.5  10.0
15 1  1  12.0  10.0  10.0
16 1  1  13.5  10.0  10.0
17 1  1  14.0  10.5  10.0
18 1  1  14.5  11.5  10.0
19 1  1  15.0  12.5  10.0
20 1  1  14.5  13.5  10.0

# Ring B (20 beads)
21 2  1  10.0  20.0  10.0
22 2  1  11.5  20.0  10.0
23 2  1  13.0  20.0  10.0
24 2  1  14.5  20.5  10.0
25 2  1  15.5  21.5  10.0
26 2  1  16.0  23.0  10.0
27 2  1  15.5  24.5  10.0
28 2  1  14.5  25.5  10.0
29 2  1  13.0  26.0  10.0
30 2  1  11.5  25.5  10.0
31 2  1  10.5  24.5  10.0
32 2  1  10.0  23.0  10.0
33 2  1  10.5  21.5  10.0
34 2  1  11.0  20.5  10.0
35 2  1  12.0  20.0  10.0
36 2  1  13.5  20.0  10.0
37 2  1  14.0  20.5  10.0
38 2  1  14.5  21.5  10.0
39 2  1  15.0  22.5  10.0
40 2  1  14.5  23.5  10.0

# Bridge beads (2 connecting segments)
41 3  1  13.0  17.0  10.0   # between rings A and B (bridge 1)
42 3  1  15.0  17.0  10.0   # between rings A and B (bridge 2)

Bonds  # bond-ID bond-type atom1 atom2

# Ring A bonds
1  1  1  2
2  1  2  3
3  1  3  4
4  1  4  5
5  1  5  6
6  1  6  7
7  1  7  8
8  1  8  9
9  1  9  10
10 1  10 11
11 1  11 12
12 1  12 13
13 1  13 14
14 1  14 15
15 1  15 16
16 1  16 17
17 1  17 18
18 1  18 19
19 1  19 20
20 1  20 1

# Ring B bonds
21 1  21 22
22 1  22 23
23 1  23 24
24 1  24 25
25 1  25 26
26 1  26 27
27 1  27 28
28 1  28 29
29 1  29 30
30 1  30 31
31 1  31 32
32 1  32 33
33 1  33 34
34 1  34 35
35 1  35 36
36 1  36 37
37 1  37 38
38 1  38 39
39 1  39 40
40 1  40 21

# Bridge bonds (connect rings A and B)
41 1  9  41     # top of ring A to bridge 1
42 1  41 29     # bridge 1 to top of ring B
43 1  19 42     # top of ring A to bridge 2
44 1  42 39     # bridge 2 to top of ring B
