LAMMPS data file - Linear Polymer (N=10)

10 atoms
9 bonds
8 angles

1 atom types
1 bond types
1 angle types

-20.00 20.00 xlo xhi
-20.00 20.00 ylo yhi
-20.00 20.00 zlo zhi

Masses

1 12.011

Atoms # atomic

1 1 1 0.0000 0.0000 0.0000
2 1 1 1.5000 0.0000 0.0000
3 1 1 3.0000 0.0000 0.0000
4 1 1 4.5000 0.0000 0.0000
5 1 1 6.0000 0.0000 0.0000
6 1 1 7.5000 0.0000 0.0000
7 1 1 9.0000 0.0000 0.0000
8 1 1 10.5000 0.0000 0.0000
9 1 1 12.0000 0.0000 0.0000
10 1 1 13.5000 0.0000 0.0000

Bonds # bond

1 1 1 2
2 1 2 3
3 1 3 4
4 1 4 5
5 1 5 6
6 1 6 7
7 1 7 8
8 1 8 9
9 1 9 10

Angles

1 1 1 2 3
2 1 2 3 4
3 1 3 4 5
4 1 4 5 6
5 1 5 6 7
6 1 6 7 8
7 1 7 8 9
8 1 8 9 10
