LAMMPS Description

     6  atoms
     7  bonds
     0  angles
     0  dihedrals
     0  impropers

     2  atom types
     1  bond types
     0  angle types
     0  dihedral types
     0  improper types

  -100.0 100.0 xlo xhi
  -100.0 100.0 ylo yhi
  -100.0 100.0 zlo zhi

Masses

1 12.011  # C
2 12.011  # C

Pair Coeffs

    1  1  0.1  3.5
    2  2  0.1  3.5

Bond Coeffs

    1  300.0  1.5
    1  300.0  1.5
  1  300.0  1.5

Atoms  # atomic

1 1 0.0 0.0 0.0
2 1 1.5 0.0 0.0
3 2 0.0 0.0 0.0
4 2 1.5 0.0 0.0
5 2 0.0 0.0 -2.0
6 2 1.5 0.0 -2.0

Bonds

1 1 1 2
2 1 3 4
3 1 5 6
4 1 1 3
5 1 2 4
6 1 1 5
7 1 2 6

